  python dir          : /gpfs/pace1/project/chbe-medford/medford-share/gits/frozen/ben_espresso_8_24_2017/espresso
  espresso dir        : /gpfs/pace1/project/chbe-medford/medford-share/builds/espresso/5.1.r11289-pybeef/intel-17.0+mvapich2-2.2+mkl-11.3/espresso-5.1.r11289-pybeef/bin
  pseudo dir          : /gpfs/pace1/project/chbe-medford/medford-share/data/pseudos/SSSP_eff_PBE
  ase-espresso py git : GITVERSION



     Program PWSCF v.5.1rc2 starts on 27Sep2017 at  1:25:11 

     This program is part of the open-source Quantum ESPRESSO suite
     for quantum simulation of materials; please cite
         "P. Giannozzi et al., J. Phys.:Condens. Matter 21 395502 (2009);
          URL http://www.quantum-espresso.org", 
     in publications or presentations arising from this work. More details at
     http://www.quantum-espresso.org/quote

     Parallel version (MPI), running on     1 processors
     Reading input from pw.inp
     Message from routine read_cards :
     DEPRECATED: no units specified in CELL_PARAMETERS card

     Current dimensions of program PWSCF are:
     Max number of different atomic species (ntypx) = 10
     Max number of k-points (npk) =  40000
     Max angular momentum in pseudopotentials (lmaxx) =  3

     IMPORTANT: XC functional enforced from input :
     Exchange-correlation      = PBE ( 1  4  3  4 0)
     Any further DFT definition will be discarded
     Please, verify this is what you really want


     Subspace diagonalization in iterative solution of the eigenvalue problem:
     a serial algorithm will be used

 
     G-vector sticks info
     --------------------
     sticks:   dense  smooth     PW     G-vecs:    dense   smooth      PW
     Sum        7305    2933    733               470089   119009   14795
 


     bravais-lattice index     =            0
     lattice parameter (alat)  =       1.8897  a.u.
     unit-cell volume          =    6748.3345 (a.u.)^3
     number of atoms/cell      =            3
     number of atomic types    =            2
     number of electrons       =         8.00
     number of Kohn-Sham states=           14
     kinetic-energy cutoff     =      25.7245  Ry
     charge density cutoff     =     257.2453  Ry
     convergence threshold     =      7.3E-08
     mixing beta               =       0.7000
     number of iterations used =            8  plain     mixing
     Exchange-correlation      = PBE ( 1  4  3  4 0)
     nstep                     =           50


     celldm(1)=   1.889726  celldm(2)=   0.000000  celldm(3)=   0.000000
     celldm(4)=   0.000000  celldm(5)=   0.000000  celldm(6)=   0.000000

     crystal axes: (cart. coord. in units of alat)
               a(1) = (  10.000000   0.000000   0.000000 )  
               a(2) = (   0.000000  10.000000   0.000000 )  
               a(3) = (   0.000000   0.000000  10.000000 )  

     reciprocal axes: (cart. coord. in units 2 pi/alat)
               b(1) = (  0.100000  0.000000  0.000000 )  
               b(2) = (  0.000000  0.100000  0.000000 )  
               b(3) = (  0.000000  0.000000  0.100000 )  


     PseudoPot. # 1 for O  read from file:
     /gpfs/pace1/project/chbe-medford/medford-share/data/pseudos/SSSP_eff_PBE/O.UPF
     MD5 check sum: 734c27235a0248c51dbae37a1fbe46ec
     Pseudo is Ultrasoft + core correction, Zval =  6.0
     Generated by new atomic code, or converted to UPF format
     Using radial grid of  737 points,  5 beta functions with: 
                l(1) =   0
                l(2) =   0
                l(3) =   1
                l(4) =   1
                l(5) =   2
     Q(r) pseudized with  8 coefficients,  rinner =    0.900   0.900   0.900
                                                       0.900   0.900

     PseudoPot. # 2 for  H read from file:
     /gpfs/pace1/project/chbe-medford/medford-share/data/pseudos/SSSP_eff_PBE/H.UPF
     MD5 check sum: 36633979392af7100e6f6632747262d3
     Pseudo is Ultrasoft, Zval =  1.0
     Generated using "atomic" code by A. Dal Corso  v.5.0.99 svn rev. 10869
     Using radial grid of  929 points,  2 beta functions with: 
                l(1) =   0
                l(2) =   0
     Q(r) pseudized with 0 coefficients 


     atomic species   valence    mass     pseudopotential
        O1             6.00    15.99940     O ( 1.00)
        H1             1.00     1.00794      H( 1.00)

      4 Sym. Ops. (no inversion) found



   Cartesian axes

     site n.     atom                  positions (alat units)
         1           O1  tau(   1) = (   0.0000000   0.0000000   0.1192620  )
         2           H1  tau(   2) = (   0.0000000   0.7632390   9.5229530  )
         3           H1  tau(   3) = (   0.0000000   9.2367610   9.5229530  )

     number of k points=     1  Fermi-Dirac smearing, width (Ry)=  0.0073
                       cart. coord. in units 2pi/alat
        k(    1) = (   0.0000000   0.0000000   0.0000000), wk =   2.0000000

     Dense  grid:   470089 G-vectors     FFT dimensions: ( 100, 100, 100)

     Smooth grid:   119009 G-vectors     FFT dimensions: (  64,  64,  64)

     Largest allocated arrays     est. size (Mb)     dimensions
        Kohn-Sham Wavefunctions         3.16 Mb     (   14795,   14)
        NL pseudopotentials             3.84 Mb     (   14795,   17)
        Each V/rho on FFT grid         15.26 Mb     ( 1000000)
        Each G-vector array             3.59 Mb     (  470089)
        G-vector shells                 0.01 Mb     (    1942)
     Largest temporary arrays     est. size (Mb)     dimensions
        Auxiliary wavefunctions        12.64 Mb     (   14795,   56)
        Each subspace H/S matrix        0.05 Mb     (      56,   56)
        Each <psi_i|beta_j> matrix      0.00 Mb     (      17,   14)
        Arrays for rho mixing         122.07 Mb     ( 1000000,    8)

     Initial potential from superposition of free atoms
     Check: negative starting charge=   -0.002028

     starting charge    7.99998, renormalised to    8.00000

     negative rho (up, down):  2.028E-03 0.000E+00
     Starting wfc are    6 randomized atomic wfcs +    8 random wfc

     total cpu time spent up to now is        9.1 secs

     per-process dynamical memory:   193.6 Mb

     Self-consistent Calculation

     iteration #  1     ecut=    25.72 Ry     beta=0.70
     Davidson diagonalization with overlap
     ethr =  1.00E-02,  avg # of iterations =  9.0

     negative rho (up, down):  6.475E-04 0.000E+00

     total cpu time spent up to now is       20.0 secs

     total energy              =     -34.44133837 Ry
     Harris-Foulkes estimate   =     -34.75421705 Ry
     estimated scf accuracy    <       0.43053968 Ry

     iteration #  2     ecut=    25.72 Ry     beta=0.70
     Davidson diagonalization with overlap
     ethr =  5.38E-03,  avg # of iterations =  2.0

     negative rho (up, down):  3.880E-03 0.000E+00

     total cpu time spent up to now is       28.1 secs

     total energy              =     -34.51668198 Ry
     Harris-Foulkes estimate   =     -34.73634065 Ry
     estimated scf accuracy    <       0.46138344 Ry

     iteration #  3     ecut=    25.72 Ry     beta=0.70
     Davidson diagonalization with overlap
     ethr =  5.38E-03,  avg # of iterations =  2.0

     negative rho (up, down):  2.790E-03 0.000E+00

     total cpu time spent up to now is       37.3 secs

     total energy              =     -34.61401745 Ry
     Harris-Foulkes estimate   =     -34.61736978 Ry
     estimated scf accuracy    <       0.00676714 Ry

     iteration #  4     ecut=    25.72 Ry     beta=0.70
     Davidson diagonalization with overlap
     ethr =  8.46E-05,  avg # of iterations =  5.0

     negative rho (up, down):  1.876E-03 0.000E+00

     total cpu time spent up to now is       46.7 secs

     total energy              =     -34.61558912 Ry
     Harris-Foulkes estimate   =     -34.61586287 Ry
     estimated scf accuracy    <       0.00068450 Ry

     iteration #  5     ecut=    25.72 Ry     beta=0.70
     Davidson diagonalization with overlap
     ethr =  8.56E-06,  avg # of iterations =  4.0

     negative rho (up, down):  1.801E-03 0.000E+00
